<?xml version="1.0" ?>
<VTKFile type="PolyData" version="0.1" byte_order="LittleEndian">
    <PolyData>
        <Piece NumberOfPoints="4" NumberOfLines="3" NumberOfVerts="0" NumberOfStrips="0" NumberOfPolys="0">
            <PointData Scalars="test">
                <DataArray type="Float32" Name="test" format="ascii">
                    0.0
                    1.0
                    2.0
                    3.0
                </DataArray>
            </PointData>
            <Points>
                <DataArray NumberOfComponents="3" type="Float32" Name="points" format="ascii">
                    0.0 0.0 0.0
                    0.0 1.0 0.0
                    1.0 0.0 0.0
                    1.0 1.0 0.0
                </DataArray>
            </Points>
            <Lines>
                <DataArray type="Int32" Name="connectivity" format="ascii">
                    0 1
                    1 2
                    2 3
                </DataArray>
                <DataArray type="Int32" Name="offsets" format="ascii">
                    2 4 6
                </DataArray>
            </Lines>
        </Piece>
    </PolyData>
</VTKFile>